+ 1.0049 176 26 exp 210 ------- 0 176.1 26.1 0 0 2.60 -2.60 -12.40 12.40
- 1.0049 176 26 exp 210 ------- 0 176.1 26.1 0 0 2.60 -2.60 -12.40 12.40
+ 1.0137 300 150 exp 210 ------- 0 300.1 150.1 0 1 15.00 -15.00 0.00 0.00
- 1.0137 300 150 exp 210 ------- 0 300.1 150.1 0 1 15.00 -15.00 0.00 0.00
+ 1.0194 107 257 exp 210 ------- 0 107.0 257.0 0 2 -4.30 4.30 10.70 -10.70
- 1.0194 107 257 exp 210 ------- 0 107.0 257.0 0 2 -4.30 4.30 10.70 -10.70
+ 1.0196 186 36 exp 210 ------- 0 186.1 36.1 0 3 3.60 -3.60 -11.40 11.40
- 1.0196 186 36 exp 210 ------- 0 186.1 36.1 0 3 3.60 -3.60 -11.40 11.40
+ 1.0210 151 1 exp 210 ------- 0 151.1 1.1 0 4 0.10 -0.10 -14.90 14.90
- 1.0210 151 1 exp 210 ------- 0 151.1 1.1 0 4 0.10 -0.10 -14.90 14.90
+ 1.0212 295 145 exp 210 ------- 0 295.1 145.1 0 5 14.50 -14.50 -0.50 0.50
- 1.0212 295 145 exp 210 ------- 0 295.1 145.1 0 5 14.50 -14.50 -0.50 0.50
+ 1.0366 33 183 exp 210 ------- 0 33.0 183.0 0 6 -11.70 11.70 3.30 -3.30
- 1.0366 33 183 exp 210 ------- 0 33.0 183.0 0 6 -11.70 11.70 3.30 -3.30
+ 1.0412 248 98 exp 210 ------- 0 248.1 98.1 0 7 9.80 -9.80 -5.20 5.20
- 1.0412 248 98 exp 210 ------- 0 248.1 98.1 0 7 9.80 -9.80 -5.20 5.20
+ 1.0430 77 227 exp 210 ------- 0 77.0 227.0 0 8 -7.30 7.30 7.70 -7.70
- 1.0430 77 227 exp 210 ------- 0 77.0 227.0 0 8 -7.30 7.30 7.70 -7.70
+ 1.0441 222 72 exp 210 ------- 0 222.1 72.1 0 9 7.20 -7.20 -7.80 7.80
- 1.0441 222 72 exp 210 ------- 0 222.1 72.1 0 9 7.20 -7.20 -7.80 7.80
+ 1.0652 165 15 exp 210 ------- 0 165.1 15.1 0 10 1.50 -1.50 -13.50 13.50
- 1.0652 165 15 exp 210 ------- 0 165.1 15.1 0 10 1.50 -1.50 -13.50 13.50
+ 1.0705 222 72 exp 210 ------- 0 222.1 72.1 1 11 7.20 -7.20 -7.80 7.80
+ 1.0710 90 240 exp 210 ------- 0 90.0 240.0 0 12 -6.00 6.00 9.00 -9.00
- 1.0710 90 240 exp 210 ------- 0 90.0 240.0 0 12 -6.00 6.00 9.00 -9.00
+ 1.0714 298 148 exp 210 ------- 0 298.1 148.1 0 13 14.80 -14.80 -0.20 0.20
- 1.0714 298 148 exp 210 ------- 0 298.1 148.1 0 13 14.80 -14.80 -0.20 0.20
+ 1.0803 300 150 exp 210 ------- 0 300.1 150.1 1 14 15.00 -15.00 0.00 0.00
+ 1.0850 75 225 exp 210 ------- 0 75.0 225.0 0 15 -7.50 7.50 7.50 -7.50
- 1.0850 75 225 exp 210 ------- 0 75.0 225.0 0 15 -7.50 7.50 7.50 -7.50
+ 1.0931 72 222 exp 210 ------- 0 72.0 222.0 0 16 -7.80 7.80 7.20 -7.20
- 1.0931 72 222 exp 210 ------- 0 72.0 222.0 0 16 -7.80 7.80 7.20 -7.20
+ 1.0951 296 146 exp 210 ------- 0 296.1 146.1 0 17 14.60 -14.60 -0.40 0.40
- 1.0951 296 146 exp 210 ------- 0 296.1 146.1 0 17 14.60 -14.60 -0.40 0.40
+ 1.1140 269 119 exp 210 ------- 0 269.1 119.1 0 18 11.90 -11.90 -3.10 3.10
- 1.1140 269 119 exp 210 ------- 0 269.1 119.1 0 18 11.90 -11.90 -3.10 3.10
+ 1.1202 189 39 exp 210 ------- 0 189.1 39.1 0 19 3.90 -3.90 -11.10 11.10
- 1.1202 189 39 exp 210 ------- 0 189.1 39.1 0 19 3.90 -3.90 -11.10 11.10
+ 1.1209 148 298 exp 210 ------- 0 148.0 298.0 0 20 -0.20 0.20 14.80 -14.80
- 1.1209 148 298 exp 210 ------- 0 148.0 298.0 0 20 -0.20 0.20 14.80 -14.80
+ 1.1231 261 111 exp 210 ------- 0 261.1 111.1 0 21 11.10 -11.10 -3.90 3.90
- 1.1231 261 111 exp 210 ------- 0 261.1 111.1 0 21 11.10 -11.10 -3.90 3.90
+ 1.1257 240 90 exp 210 ------- 0 240.1 90.1 0 22 9.00 -9.00 -6.00 6.00
- 1.1257 240 90 exp 210 ------- 0 240.1 90.1 0 22 9.00 -9.00 -6.00 6.00
+ 1.1384 212 62 exp 210 ------- 0 212.1 62.1 0 23 6.20 -6.20 -8.80 8.80
- 1.1384 212 62 exp 210 ------- 0 212.1 62.1 0 23 6.20 -6.20 -8.80 8.80
+ 1.1426 211 61 exp 210 ------- 0 211.1 61.1 0 24 6.10 -6.10 -8.90 8.90
- 1.1426 211 61 exp 210 ------- 0 211.1 61.1 0 24 6.10 -6.10 -8.90 8.90
+ 1.1443 246 96 exp 210 ------- 0 246.1 96.1 0 25 9.60 -9.60 -5.40 5.40
- 1.1443 246 96 exp 210 ------- 0 246.1 96.1 0 25 9.60 -9.60 -5.40 5.40
+ 1.1456 77 227 exp 210 ------- 0 77.0 227.0 1 26 -7.30 7.30 7.70 -7.70
+ 1.1487 74 224 exp 210 ------- 0 74.0 224.0 0 27 -7.60 7.60 7.40 -7.40
- 1.1487 74 224 exp 210 ------- 0 74.0 224.0 0 27 -7.60 7.60 7.40 -7.40
+ 1.1503 230 80 exp 210 ------- 0 230.1 80.1 0 28 8.00 -8.00 -7.00 7.00
- 1.1503 230 80 exp 210 ------- 0 230.1 80.1 0 28 8.00 -8.00 -7.00 7.00
+ 1.1507 230 80 exp 210 ------- 0 230.1 80.1 1 29 8.00 -8.00 -7.00 7.00
+ 1.1526 154 4 exp 210 ------- 0 154.1 4.1 0 30 0.40 -0.40 -14.60 14.60
- 1.1526 154 4 exp 210 ------- 0 154.1 4.1 0 30 0.40 -0.40 -14.60 14.60
+ 1.1535 38 188 exp 210 ------- 0 38.0 188.0 0 31 -11.20 11.20 3.80 -3.80
- 1.1535 38 188 exp 210 ------- 0 38.0 188.0 0 31 -11.20 11.20 3.80 -3.80
+ 1.1536 127 277 exp 210 ------- 0 127.0 277.0 0 32 -2.30 2.30 12.70 -12.70
- 1.1536 127 277 exp 210 ------- 0 127.0 277.0 0 32 -2.30 2.30 12.70 -12.70
+ 1.1558 73 223 exp 210 ------- 0 73.0 223.0 0 33 -7.70 7.70 7.30 -7.30
- 1.1558 73 223 exp 210 ------- 0 73.0 223.0 0 33 -7.70 7.70 7.30 -7.30
+ 1.1597 214 64 exp 210 ------- 0 214.1 64.1 0 34 6.40 -6.40 -8.60 8.60
- 1.1597 214 64 exp 210 ------- 0 214.1 64.1 0 34 6.40 -6.40 -8.60 8.60
+ 1.1610 105 255 exp 210 ------- 0 105.0 255.0 0 35 -4.50 4.50 10.50 -10.50
- 1.1610 105 255 exp 210 ------- 0 105.0 255.0 0 35 -4.50 4.50 10.50 -10.50
+ 1.1636 62 212 exp 210 ------- 0 62.0 212.0 0 36 -8.80 8.80 6.20 -6.20
- 1.1636 62 212 exp 210 ------- 0 62.0 212.0 0 36 -8.80 8.80 6.20 -6.20
+ 1.1727 21 171 exp 210 ------- 0 21.0 171.0 0 37 -12.90 12.90 2.10 -2.10
- 1.1727 21 171 exp 210 ------- 0 21.0 171.0 0 37 -12.90 12.90 2.10 -2.10
+ 1.1793 20 170 exp 210 ------- 0 20.0 170.0 0 38 -13.00 13.00 2.00 -2.00
- 1.1793 20 170 exp 210 ------- 0 20.0 170.0 0 38 -13.00 13.00 2.00 -2.00
+ 1.1902 78 228 exp 210 ------- 0 78.0 228.0 0 39 -7.20 7.20 7.80 -7.80
- 1.1902 78 228 exp 210 ------- 0 78.0 228.0 0 39 -7.20 7.20 7.80 -7.80
+ 1.1919 51 201 exp 210 ------- 0 51.0 201.0 0 40 -9.90 9.90 5.10 -5.10
- 1.1919 51 201 exp 210 ------- 0 51.0 201.0 0 40 -9.90 9.90 5.10 -5.10
+ 1.1927 215 65 exp 210 ------- 0 215.1 65.1 0 41 6.50 -6.50 -8.50 8.50
- 1.1927 215 65 exp 210 ------- 0 215.1 65.1 0 41 6.50 -6.50 -8.50 8.50
+ 1.2011 39 189 exp 210 ------- 0 39.0 189.0 0 42 -11.10 11.10 3.90 -3.90
- 1.2011 39 189 exp 210 ------- 0 39.0 189.0 0 42 -11.10 11.10 3.90 -3.90
+ 1.2015 231 81 exp 210 ------- 0 231.1 81.1 0 43 8.10 -8.10 -6.90 6.90
- 1.2015 231 81 exp 210 ------- 0 231.1 81.1 0 43 8.10 -8.10 -6.90 6.90
+ 1.2129 245 95 exp 210 ------- 0 245.1 95.1 0 44 9.50 -9.50 -5.50 5.50
- 1.2129 245 95 exp 210 ------- 0 245.1 95.1 0 44 9.50 -9.50 -5.50 5.50
+ 1.2146 155 5 exp 210 ------- 0 155.1 5.1 0 45 0.50 -0.50 -14.50 14.50
- 1.2146 155 5 exp 210 ------- 0 155.1 5.1 0 45 0.50 -0.50 -14.50 14.50
+ 1.2175 35 185 exp 210 ------- 0 35.0 185.0 0 46 -11.50 11.50 3.50 -3.50
- 1.2175 35 185 exp 210 ------- 0 35.0 185.0 0 46 -11.50 11.50 3.50 -3.50
+ 1.2188 252 102 exp 210 ------- 0 252.1 102.1 0 47 10.20 -10.20 -4.80 4.80
- 1.2188 252 102 exp 210 ------- 0 252.1 102.1 0 47 10.20 -10.20 -4.80 4.80
+ 1.2226 165 15 exp 210 ------- 0 165.1 15.1 1 48 1.50 -1.50 -13.50 13.50
+ 1.2228 14 164 exp 210 ------- 0 14.0 164.0 0 49 -13.60 13.60 1.40 -1.40
- 1.2228 14 164 exp 210 ------- 0 14.0 164.0 0 49 -13.60 13.60 1.40 -1.40
+ 1.2253 126 276 exp 210 ------- 0 126.0 276.0 0 50 -2.40 2.40 12.60 -12.60
- 1.2253 126 276 exp 210 ------- 0 126.0 276.0 0 50 -2.40 2.40 12.60 -12.60
+ 1.2280 259 109 exp 210 ------- 0 259.1 109.1 0 51 10.90 -10.90 -4.10 4.10
- 1.2280 259 109 exp 210 ------- 0 259.1 109.1 0 51 10.90 -10.90 -4.10 4.10
+ 1.2283 202 52 exp 210 ------- 0 202.1 52.1 0 52 5.20 -5.20 -9.80 9.80
- 1.2283 202 52 exp 210 ------- 0 202.1 52.1 0 52 5.20 -5.20 -9.80 9.80
+ 1.2310 96 246 exp 210 ------- 0 96.0 246.0 0 53 -5.40 5.40 9.60 -9.60
- 1.2310 96 246 exp 210 ------- 0 96.0 246.0 0 53 -5.40 5.40 9.60 -9.60
+ 1.2407 139 289 exp 210 ------- 0 139.0 289.0 0 54 -1.10 1.10 13.90 -13.90
- 1.2407 139 289 exp 210 ------- 0 139.0 289.0 0 54 -1.10 1.10 13.90 -13.90
+ 1.2420 16 166 exp 210 ------- 0 16.0 166.0 0 55 -13.40 13.40 1.60 -1.60
- 1.2420 16 166 exp 210 ------- 0 16.0 166.0 0 55 -13.40 13.40 1.60 -1.60
+ 1.2426 63 213 exp 210 ------- 0 63.0 213.0 0 56 -8.70 8.70 6.30 -6.30
- 1.2426 63 213 exp 210 ------- 0 63.0 213.0 0 56 -8.70 8.70 6.30 -6.30
+ 1.2469 261 111 exp 210 ------- 0 261.1 111.1 1 57 11.10 -11.10 -3.90 3.90
+ 1.2569 231 81 exp 210 ------- 0 231.1 81.1 1 58 8.10 -8.10 -6.90 6.90
+ 1.2683 6 156 exp 210 ------- 0 6.0 156.0 0 59 -14.40 14.40 0.60 -0.60
- 1.2683 6 156 exp 210 ------- 0 6.0 156.0 0 59 -14.40 14.40 0.60 -0.60
+ 1.2691 136 286 exp 210 ------- 0 136.0 286.0 0 60 -1.40 1.40 13.60 -13.60
- 1.2691 136 286 exp 210 ------- 0 136.0 286.0 0 60 -1.40 1.40 13.60 -13.60
+ 1.2702 181 31 exp 210 ------- 0 181.1 31.1 0 61 3.10 -3.10 -11.90 11.90
- 1.2702 181 31 exp 210 ------- 0 181.1 31.1 0 61 3.10 -3.10 -11.90 11.90
+ 1.2792 68 218 exp 210 ------- 0 68.0 218.0 0 62 -8.20 8.20 6.80 -6.80
- 1.2792 68 218 exp 210 ------- 0 68.0 218.0 0 62 -8.20 8.20 6.80 -6.80
+ 1.2796 92 242 exp 210 ------- 0 92.0 242.0 0 63 -5.80 5.80 9.20 -9.20
- 1.2796 92 242 exp 210 ------- 0 92.0 242.0 0 63 -5.80 5.80 9.20 -9.20
+ 1.2831 266 116 exp 210 ------- 0 266.1 116.1 0 64 11.60 -11.60 -3.40 3.40
- 1.2831 266 116 exp 210 ------- 0 266.1 116.1 0 64 11.60 -11.60 -3.40 3.40
+ 1.2853 95 245 exp 210 ------- 0 95.0 245.0 0 65 -5.50 5.50 9.50 -9.50
- 1.2853 95 245 exp 210 ------- 0 95.0 245.0 0 65 -5.50 5.50 9.50 -9.50
+ 1.2940 166 16 exp 210 ------- 0 166.1 16.1 0 66 1.60 -1.60 -13.40 13.40
- 1.2940 166 16 exp 210 ------- 0 166.1 16.1 0 66 1.60 -1.60 -13.40 13.40
+ 1.2982 160 10 exp 210 ------- 0 160.1 10.1 0 67 1.00 -1.00 -14.00 14.00
- 1.2982 160 10 exp 210 ------- 0 160.1 10.1 0 67 1.00 -1.00 -14.00 14.00
+ 1.2988 239 89 exp 210 ------- 0 239.1 89.1 0 68 8.90 -8.90 -6.10 6.10
- 1.2988 239 89 exp 210 ------- 0 239.1 89.1 0 68 8.90 -8.90 -6.10 6.10
r 1.3012 176 26 exp 210 ------- 0 176.1 26.1 0 0 2.60 -2.60 -12.40 12.40
+ 1.3043 4 154 exp 210 ------- 0 4.0 154.0 0 69 -14.60 14.60 0.40 -0.40
- 1.3043 4 154 exp 210 ------- 0 4.0 154.0 0 69 -14.60 14.60 0.40 -0.40
+ 1.3059 42 192 exp 210 ------- 0 42.0 192.0 0 70 -10.80 10.80 4.20 -4.20
- 1.3059 42 192 exp 210 ------- 0 42.0 192.0 0 70 -10.80 10.80 4.20 -4.20
+ 1.3063 178 28 exp 210 ------- 0 178.1 28.1 0 71 2.80 -2.80 -12.20 12.20
- 1.3063 178 28 exp 210 ------- 0 178.1 28.1 0 71 2.80 -2.80 -12.20 12.20
+ 1.3107 224 74 exp 210 ------- 0 224.1 74.1 0 72 7.40 -7.40 -7.60 7.60
- 1.3107 224 74 exp 210 ------- 0 224.1 74.1 0 72 7.40 -7.40 -7.60 7.60
+ 1.3285 159 9 exp 210 ------- 0 159.1 9.1 0 73 0.90 -0.90 -14.10 14.10
- 1.3285 159 9 exp 210 ------- 0 159.1 9.1 0 73 0.90 -0.90 -14.10 14.10
+ 1.3325 259 109 exp 210 ------- 0 259.1 109.1 1 74 10.90 -10.90 -4.10 4.10
+ 1.3365 3 153 exp 210 ------- 0 3.0 153.0 0 75 -14.70 14.70 0.30 -0.30
- 1.3365 3 153 exp 210 ------- 0 3.0 153.0 0 75 -14.70 14.70 0.30 -0.30
+ 1.3383 274 124 exp 210 ------- 0 274.1 124.1 0 76 12.40 -12.40 -2.60 2.60
- 1.3383 274 124 exp 210 ------- 0 274.1 124.1 0 76 12.40 -12.40 -2.60 2.60
+ 1.3400 90 240 exp 210 ------- 0 90.0 240.0 1 77 -6.00 6.00 9.00 -9.00
+ 1.3402 152 2 exp 210 ------- 0 152.1 2.1 0 78 0.20 -0.20 -14.80 14.80
- 1.3402 152 2 exp 210 ------- 0 152.1 2.1 0 78 0.20 -0.20 -14.80 14.80
+ 1.3455 258 108 exp 210 ------- 0 258.1 108.1 0 79 10.80 -10.80 -4.20 4.20
- 1.3455 258 108 exp 210 ------- 0 258.1 108.1 0 79 10.80 -10.80 -4.20 4.20
+ 1.3469 97 247 exp 210 ------- 0 97.0 247.0 0 80 -5.30 5.30 9.70 -9.70
- 1.3469 97 247 exp 210 ------- 0 97.0 247.0 0 80 -5.30 5.30 9.70 -9.70
+ 1.3501 187 37 exp 210 ------- 0 187.1 37.1 0 81 3.70 -3.70 -11.30 11.30
- 1.3501 187 37 exp 210 ------- 0 187.1 37.1 0 81 3.70 -3.70 -11.30 11.30
+ 1.3517 208 58 exp 210 ------- 0 208.1 58.1 0 82 5.80 -5.80 -9.20 9.20
- 1.3517 208 58 exp 210 ------- 0 208.1 58.1 0 82 5.80 -5.80 -9.20 9.20
- 1.3523 165 15 exp 210 ------- 0 165.1 15.1 1 48 1.50 -1.50 -13.50 13.50
+ 1.3528 251 101 exp 210 ------- 0 251.1 101.1 0 83 10.10 -10.10 -4.90 4.90
- 1.3528 251 101 exp 210 ------- 0 251.1 101.1 0 83 10.10 -10.10 -4.90 4.90
r 1.3536 165 15 exp 210 ------- 0 165.1 15.1 0 10 1.50 -1.50 -13.50 13.50
+ 1.3545 54 204 exp 210 ------- 0 54.0 204.0 0 84 -9.60 9.60 5.40 -5.40
- 1.3545 54 204 exp 210 ------- 0 54.0 204.0 0 84 -9.60 9.60 5.40 -5.40
+ 1.3549 227 77 exp 210 ------- 0 227.1 77.1 0 85 7.70 -7.70 -7.30 7.30
- 1.3549 227 77 exp 210 ------- 0 227.1 77.1 0 85 7.70 -7.70 -7.30 7.30
+ 1.3606 219 69 exp 210 ------- 0 219.1 69.1 0 86 6.90 -6.90 -8.10 8.10
- 1.3606 219 69 exp 210 ------- 0 219.1 69.1 0 86 6.90 -6.90 -8.10 8.10
+ 1.3633 30 180 exp 210 ------- 0 30.0 180.0 0 87 -12.00 12.00 3.00 -3.00
- 1.3633 30 180 exp 210 ------- 0 30.0 180.0 0 87 -12.00 12.00 3.00 -3.00
+ 1.3711 203 53 exp 210 ------- 0 203.1 53.1 0 88 5.30 -5.30 -9.70 9.70
- 1.3711 203 53 exp 210 ------- 0 203.1 53.1 0 88 5.30 -5.30 -9.70 9.70
+ 1.3714 63 213 exp 210 ------- 0 63.0 213.0 1 89 -8.70 8.70 6.30 -6.30
+ 1.3749 292 142 exp 210 ------- 0 292.1 142.1 0 90 14.20 -14.20 -0.80 0.80
- 1.3749 292 142 exp 210 ------- 0 292.1 142.1 0 90 14.20 -14.20 -0.80 0.80
+ 1.3788 117 267 exp 210 ------- 0 117.0 267.0 0 91 -3.30 3.30 11.70 -11.70
- 1.3788 117 267 exp 210 ------- 0 117.0 267.0 0 91 -3.30 3.30 11.70 -11.70
+ 1.3870 31 181 exp 210 ------- 0 31.0 181.0 0 92 -11.90 11.90 3.10 -3.10
- 1.3870 31 181 exp 210 ------- 0 31.0 181.0 0 92 -11.90 11.90 3.10 -3.10
+ 1.3989 96 246 exp 210 ------- 0 96.0 246.0 1 93 -5.40 5.40 9.60 -9.60
+ 1.3998 246 96 exp 210 ------- 0 246.1 96.1 1 94 9.60 -9.60 -5.40 5.40
+ 1.4074 17 167 exp 210 ------- 0 17.0 167.0 0 95 -13.30 13.30 1.70 -1.70
- 1.4074 17 167 exp 210 ------- 0 17.0 167.0 0 95 -13.30 13.30 1.70 -1.70
+ 1.4187 239 89 exp 210 ------- 0 239.1 89.1 1 96 8.90 -8.90 -6.10 6.10
+ 1.4195 271 121 exp 210 ------- 0 271.1 121.1 0 97 12.10 -12.10 -2.90 2.90
- 1.4195 271 121 exp 210 ------- 0 271.1 121.1 0 97 12.10 -12.10 -2.90 2.90
+ 1.4195 288 138 exp 210 ------- 0 288.1 138.1 0 98 13.80 -13.80 -1.20 1.20
- 1.4195 288 138 exp 210 ------- 0 288.1 138.1 0 98 13.80 -13.80 -1.20 1.20
+ 1.4213 53 203 exp 210 ------- 0 53.0 203.0 0 99 -9.70 9.70 5.30 -5.30
- 1.4213 53 203 exp 210 ------- 0 53.0 203.0 0 99 -9.70 9.70 5.30 -5.30
+ 1.4316 272 122 exp 210 ------- 0 272.1 122.1 0 100 12.20 -12.20 -2.80 2.80
- 1.4316 272 122 exp 210 ------- 0 272.1 122.1 0 100 12.20 -12.20 -2.80 2.80
+ 1.4323 80 230 exp 210 ------- 0 80.0 230.0 0 101 -7.00 7.00 8.00 -8.00
- 1.4323 80 230 exp 210 ------- 0 80.0 230.0 0 101 -7.00 7.00 8.00 -8.00
+ 1.4333 78 228 exp 210 ------- 0 78.0 228.0 1 102 -7.20 7.20 7.80 -7.80
+ 1.4344 150 300 exp 210 ------- 0 150.0 300.0 0 103 0.00 0.00 15.00 -15.00
- 1.4344 150 300 exp 210 ------- 0 150.0 300.0 0 103 0.00 0.00 15.00 -15.00
+ 1.4456 253 103 exp 210 ------- 0 253.1 103.1 0 104 10.30 -10.30 -4.70 4.70
- 1.4456 253 103 exp 210 ------- 0 253.1 103.1 0 104 10.30 -10.30 -4.70 4.70
+ 1.4603 40 190 exp 210 ------- 0 40.0 190.0 0 105 -11.00 11.00 4.00 -4.00
- 1.4603 40 190 exp 210 ------- 0 40.0 190.0 0 105 -11.00 11.00 4.00 -4.00
+ 1.4607 61 211 exp 210 ------- 0 61.0 211.0 0 106 -8.90 8.90 6.10 -6.10
- 1.4607 61 211 exp 210 ------- 0 61.0 211.0 0 106 -8.90 8.90 6.10 -6.10
+ 1.4618 36 186 exp 210 ------- 0 36.0 186.0 0 107 -11.40 11.40 3.60 -3.60
- 1.4618 36 186 exp 210 ------- 0 36.0 186.0 0 107 -11.40 11.40 3.60 -3.60
+ 1.4757 92 242 exp 210 ------- 0 92.0 242.0 1 108 -5.80 5.80 9.20 -9.20
+ 1.4774 97 247 exp 210 ------- 0 97.0 247.0 1 109 -5.30 5.30 9.70 -9.70
+ 1.4893 107 257 exp 210 ------- 0 107.0 257.0 1 110 -4.30 4.30 10.70 -10.70
+ 1.4935 173 23 exp 210 ------- 0 173.1 23.1 0 111 2.30 -2.30 -12.70 12.70
- 1.4935 173 23 exp 210 ------- 0 173.1 23.1 0 111 2.30 -2.30 -12.70 12.70
+ 1.4943 275 125 exp 210 ------- 0 275.1 125.1 0 112 12.50 -12.50 -2.50 2.50
- 1.4943 275 125 exp 210 ------- 0 275.1 125.1 0 112 12.50 -12.50 -2.50 2.50
r 1.4989 269 119 exp 210 ------- 0 269.1 119.1 0 18 11.90 -11.90 -3.10 3.10
+ 1.5166 252 102 exp 210 ------- 0 252.1 102.1 1 113 10.20 -10.20 -4.80 4.80
+ 1.5174 91 241 exp 210 ------- 0 91.0 241.0 0 114 -5.90 5.90 9.10 -9.10
- 1.5174 91 241 exp 210 ------- 0 91.0 241.0 0 114 -5.90 5.90 9.10 -9.10
+ 1.5219 67 217 exp 210 ------- 0 67.0 217.0 0 115 -8.30 8.30 6.70 -6.70
- 1.5219 67 217 exp 210 ------- 0 67.0 217.0 0 115 -8.30 8.30 6.70 -6.70
+ 1.5263 101 251 exp 210 ------- 0 101.0 251.0 0 116 -4.90 4.90 10.10 -10.10
- 1.5263 101 251 exp 210 ------- 0 101.0 251.0 0 116 -4.90 4.90 10.10 -10.10
+ 1.5328 119 269 exp 210 ------- 0 119.0 269.0 0 117 -3.10 3.10 11.90 -11.90
- 1.5328 119 269 exp 210 ------- 0 119.0 269.0 0 117 -3.10 3.10 11.90 -11.90
+ 1.5344 266 116 exp 210 ------- 0 266.1 116.1 1 118 11.60 -11.60 -3.40 3.40
+ 1.5444 47 197 exp 210 ------- 0 47.0 197.0 0 119 -10.30 10.30 4.70 -4.70
- 1.5444 47 197 exp 210 ------- 0 47.0 197.0 0 119 -10.30 10.30 4.70 -4.70
+ 1.5461 32 182 exp 210 ------- 0 32.0 182.0 0 120 -11.80 11.80 3.20 -3.20
- 1.5461 32 182 exp 210 ------- 0 32.0 182.0 0 120 -11.80 11.80 3.20 -3.20
+ 1.5551 273 123 exp 210 ------- 0 273.1 123.1 0 121 12.30 -12.30 -2.70 2.70
- 1.5551 273 123 exp 210 ------- 0 273.1 123.1 0 121 12.30 -12.30 -2.70 2.70
+ 1.5561 172 22 exp 210 ------- 0 172.1 22.1 0 122 2.20 -2.20 -12.80 12.80
- 1.5561 172 22 exp 210 ------- 0 172.1 22.1 0 122 2.20 -2.20 -12.80 12.80
r 1.5680 136 286 exp 210 ------- 0 136.0 286.0 0 60 -1.40 1.40 13.60 -13.60
+ 1.5749 227 77 exp 210 ------- 0 227.1 77.1 1 123 7.70 -7.70 -7.30 7.30
+ 1.5889 81 231 exp 210 ------- 0 81.0 231.0 0 124 -6.90 6.90 8.10 -8.10
- 1.5889 81 231 exp 210 ------- 0 81.0 231.0 0 124 -6.90 6.90 8.10 -8.10
+ 1.5910 263 113 exp 210 ------- 0 263.1 113.1 0 125 11.30 -11.30 -3.70 3.70
- 1.5910 263 113 exp 210 ------- 0 263.1 113.1 0 125 11.30 -11.30 -3.70 3.70
+ 1.6028 202 52 exp 210 ------- 0 202.1 52.1 1 126 5.20 -5.20 -9.80 9.80
+ 1.6032 294 144 exp 210 ------- 0 294.1 144.1 0 127 14.40 -14.40 -0.60 0.60
- 1.6032 294 144 exp 210 ------- 0 294.1 144.1 0 127 14.40 -14.40 -0.60 0.60
+ 1.6110 21 171 exp 210 ------- 0 21.0 171.0 1 128 -12.90 12.90 2.10 -2.10
+ 1.6118 285 135 exp 210 ------- 0 285.1 135.1 0 129 13.50 -13.50 -1.50 1.50
- 1.6118 285 135 exp 210 ------- 0 285.1 135.1 0 129 13.50 -13.50 -1.50 1.50
+ 1.6150 61 211 exp 210 ------- 0 61.0 211.0 1 130 -8.90 8.90 6.10 -6.10
+ 1.6154 43 193 exp 210 ------- 0 43.0 193.0 0 131 -10.70 10.70 4.30 -4.30
- 1.6154 43 193 exp 210 ------- 0 43.0 193.0 0 131 -10.70 10.70 4.30 -4.30
+ 1.6158 271 121 exp 210 ------- 0 271.1 121.1 1 132 12.10 -12.10 -2.90 2.90
+ 1.6291 73 223 exp 210 ------- 0 73.0 223.0 1 133 -7.70 7.70 7.30 -7.30
+ 1.6338 84 234 exp 210 ------- 0 84.0 234.0 0 134 -6.60 6.60 8.40 -8.40
- 1.6338 84 234 exp 210 ------- 0 84.0 234.0 0 134 -6.60 6.60 8.40 -8.40
+ 1.6365 39 189 exp 210 ------- 0 39.0 189.0 1 135 -11.10 11.10 3.90 -3.90
+ 1.6380 248 98 exp 210 ------- 0 248.1 98.1 1 136 9.80 -9.80 -5.20 5.20
+ 1.6389 202 52 exp 210 ------- 0 202.1 52.1 2 137 5.20 -5.20 -9.80 9.80
+ 1.6407 209 59 exp 210 ------- 0 209.1 59.1 0 138 5.90 -5.90 -9.10 9.10
- 1.6407 209 59 exp 210 ------- 0 209.1 59.1 0 138 5.90 -5.90 -9.10 9.10
r 1.6451 159 9 exp 210 ------- 0 159.1 9.1 0 73 0.90 -0.90 -14.10 14.10
+ 1.6583 248 98 exp 210 ------- 0 248.1 98.1 2 139 9.80 -9.80 -5.20 5.20
+ 1.6708 75 225 exp 210 ------- 0 75.0 225.0 1 140 -7.50 7.50 7.50 -7.50
+ 1.6723 5 155 exp 210 ------- 0 5.0 155.0 0 141 -14.50 14.50 0.50 -0.50
- 1.6723 5 155 exp 210 ------- 0 5.0 155.0 0 141 -14.50 14.50 0.50 -0.50
+ 1.6765 70 220 exp 210 ------- 0 70.0 220.0 0 142 -8.00 8.00 7.00 -7.00
- 1.6765 70 220 exp 210 ------- 0 70.0 220.0 0 142 -8.00 8.00 7.00 -7.00
+ 1.6793 290 140 exp 210 ------- 0 290.1 140.1 0 143 14.00 -14.00 -1.00 1.00
- 1.6793 290 140 exp 210 ------- 0 290.1 140.1 0 143 14.00 -14.00 -1.00 1.00
+ 1.6803 206 56 exp 210 ------- 0 206.1 56.1 0 144 5.60 -5.60 -9.40 9.40
- 1.6803 206 56 exp 210 ------- 0 206.1 56.1 0 144 5.60 -5.60 -9.40 9.40
r 1.6816 17 167 exp 210 ------- 0 17.0 167.0 0 95 -13.30 13.30 1.70 -1.70
+ 1.6855 31 181 exp 210 ------- 0 31.0 181.0 1 145 -11.90 11.90 3.10 -3.10
+ 1.6877 248 98 exp 210 ------- 0 248.1 98.1 3 146 9.80 -9.80 -5.20 5.20
+ 1.6893 113 263 exp 210 ------- 0 113.0 263.0 0 147 -3.70 3.70 11.30 -11.30
- 1.6893 113 263 exp 210 ------- 0 113.0 263.0 0 147 -3.70 3.70 11.30 -11.30
+ 1.7010 270 120 exp 210 ------- 0 270.1 120.1 0 148 12.00 -12.00 -3.00 3.00
- 1.7010 270 120 exp 210 ------- 0 270.1 120.1 0 148 12.00 -12.00 -3.00 3.00
r 1.7059 253 103 exp 210 ------- 0 253.1 103.1 0 104 10.30 -10.30 -4.70 4.70
+ 1.7109 268 118 exp 210 ------- 0 268.1 118.1 0 149 11.80 -11.80 -3.20 3.20
- 1.7109 268 118 exp 210 ------- 0 268.1 118.1 0 149 11.80 -11.80 -3.20 3.20
+ 1.7220 282 132 exp 210 ------- 0 282.1 132.1 0 150 13.20 -13.20 -1.80 1.80
- 1.7220 282 132 exp 210 ------- 0 282.1 132.1 0 150 13.20 -13.20 -1.80 1.80
- 1.7246 77 227 exp 210 ------- 0 77.0 227.0 1 26 -7.30 7.30 7.70 -7.70
r 1.7247 77 227 exp 210 ------- 0 77.0 227.0 0 8 -7.30 7.30 7.70 -7.70
+ 1.7249 280 130 exp 210 ------- 0 280.1 130.1 0 151 13.00 -13.00 -2.00 2.00
- 1.7249 280 130 exp 210 ------- 0 280.1 130.1 0 151 13.00 -13.00 -2.00 2.00
+ 1.7406 225 75 exp 210 ------- 0 225.1 75.1 0 152 7.50 -7.50 -7.50 7.50
- 1.7406 225 75 exp 210 ------- 0 225.1 75.1 0 152 7.50 -7.50 -7.50 7.50
+ 1.7455 227 77 exp 210 ------- 0 227.1 77.1 2 153 7.70 -7.70 -7.30 7.30
+ 1.7477 274 124 exp 210 ------- 0 274.1 124.1 1 154 12.40 -12.40 -2.60 2.60
+ 1.7487 226 76 exp 210 ------- 0 226.1 76.1 0 155 7.60 -7.60 -7.40 7.40
- 1.7487 226 76 exp 210 ------- 0 226.1 76.1 0 155 7.60 -7.60 -7.40 7.40
r 1.7535 298 148 exp 210 ------- 0 298.1 148.1 0 13 14.80 -14.80 -0.20 0.20
+ 1.7563 241 91 exp 210 ------- 0 241.1 91.1 0 156 9.10 -9.10 -5.90 5.90
- 1.7563 241 91 exp 210 ------- 0 241.1 91.1 0 156 9.10 -9.10 -5.90 5.90
+ 1.7651 138 288 exp 210 ------- 0 138.0 288.0 0 157 -1.20 1.20 13.80 -13.80
- 1.7651 138 288 exp 210 ------- 0 138.0 288.0 0 157 -1.20 1.20 13.80 -13.80
+ 1.7748 42 192 exp 210 ------- 0 42.0 192.0 1 158 -10.80 10.80 4.20 -4.20
+ 1.7789 23 173 exp 210 ------- 0 23.0 173.0 0 159 -12.70 12.70 2.30 -2.30
- 1.7789 23 173 exp 210 ------- 0 23.0 173.0 0 159 -12.70 12.70 2.30 -2.30
+ 1.7792 74 224 exp 210 ------- 0 74.0 224.0 1 160 -7.60 7.60 7.40 -7.40
+ 1.7798 155 5 exp 210 ------- 0 155.1 5.1 1 161 0.50 -0.50 -14.50 14.50
+ 1.7831 74 224 exp 210 ------- 0 74.0 224.0 2 162 -7.60 7.60 7.40 -7.40
+ 1.7870 213 63 exp 210 ------- 0 213.1 63.1 0 163 6.30 -6.30 -8.70 8.70
- 1.7870 213 63 exp 210 ------- 0 213.1 63.1 0 163 6.30 -6.30 -8.70 8.70
- 1.7939 75 225 exp 210 ------- 0 75.0 225.0 1 140 -7.50 7.50 7.50 -7.50
r 1.7939 75 225 exp 210 ------- 0 75.0 225.0 0 15 -7.50 7.50 7.50 -7.50
+ 1.7973 132 282 exp 210 ------- 0 132.0 282.0 0 164 -1.80 1.80 13.20 -13.20
- 1.7973 132 282 exp 210 ------- 0 132.0 282.0 0 164 -1.80 1.80 13.20 -13.20
+ 1.8092 191 41 exp 210 ------- 0 191.1 41.1 0 165 4.10 -4.10 -10.90 10.90
- 1.8092 191 41 exp 210 ------- 0 191.1 41.1 0 165 4.10 -4.10 -10.90 10.90
+ 1.8156 121 271 exp 210 ------- 0 121.0 271.0 0 166 -2.90 2.90 12.10 -12.10
- 1.8156 121 271 exp 210 ------- 0 121.0 271.0 0 166 -2.90 2.90 12.10 -12.10
+ 1.8167 94 244 exp 210 ------- 0 94.0 244.0 0 167 -5.60 5.60 9.40 -9.40
- 1.8167 94 244 exp 210 ------- 0 94.0 244.0 0 167 -5.60 5.60 9.40 -9.40
r 1.8246 172 22 exp 210 ------- 0 172.1 22.1 0 122 2.20 -2.20 -12.80 12.80
+ 1.8294 147 297 exp 210 ------- 0 147.0 297.0 0 168 -0.30 0.30 14.70 -14.70
- 1.8294 147 297 exp 210 ------- 0 147.0 297.0 0 168 -0.30 0.30 14.70 -14.70
+ 1.8309 133 283 exp 210 ------- 0 133.0 283.0 0 169 -1.70 1.70 13.30 -13.30
- 1.8309 133 283 exp 210 ------- 0 133.0 283.0 0 169 -1.70 1.70 13.30 -13.30
+ 1.8314 33 183 exp 210 ------- 0 33.0 183.0 1 170 -11.70 11.70 3.30 -3.30
+ 1.8324 175 25 exp 210 ------- 0 175.1 25.1 0 171 2.50 -2.50 -12.50 12.50
- 1.8324 175 25 exp 210 ------- 0 175.1 25.1 0 171 2.50 -2.50 -12.50 12.50
r 1.8386 73 223 exp 210 ------- 0 73.0 223.0 0 33 -7.70 7.70 7.30 -7.30
- 1.8386 73 223 exp 210 ------- 0 73.0 223.0 1 133 -7.70 7.70 7.30 -7.30
+ 1.8407 157 7 exp 210 ------- 0 157.1 7.1 0 172 0.70 -0.70 -14.30 14.30
- 1.8407 157 7 exp 210 ------- 0 157.1 7.1 0 172 0.70 -0.70 -14.30 14.30
r 1.8611 20 170 exp 210 ------- 0 20.0 170.0 0 38 -13.00 13.00 2.00 -2.00
+ 1.8612 155 5 exp 210 ------- 0 155.1 5.1 2 173 0.50 -0.50 -14.50 14.50
+ 1.8622 138 288 exp 210 ------- 0 138.0 288.0 1 174 -1.20 1.20 13.80 -13.80
+ 1.8630 43 193 exp 210 ------- 0 43.0 193.0 1 175 -10.70 10.70 4.30 -4.30
+ 1.8771 166 16 exp 210 ------- 0 166.1 16.1 1 176 1.60 -1.60 -13.40 13.40
+ 1.8810 1 151 exp 210 ------- 0 1.0 151.0 0 177 -14.90 14.90 0.10 -0.10
- 1.8810 1 151 exp 210 ------- 0 1.0 151.0 0 177 -14.90 14.90 0.10 -0.10
- 1.8870 39 189 exp 210 ------- 0 39.0 189.0 1 135 -11.10 11.10 3.90 -3.90
+ 1.8875 194 44 exp 210 ------- 0 194.1 44.1 0 178 4.40 -4.40 -10.60 10.60
- 1.8875 194 44 exp 210 ------- 0 194.1 44.1 0 178 4.40 -4.40 -10.60 10.60
+ 1.8886 298 148 exp 210 ------- 0 298.1 148.1 1 179 14.80 -14.80 -0.20 0.20
- 1.8886 298 148 exp 210 ------- 0 298.1 148.1 1 179 14.80 -14.80 -0.20 0.20
+ 1.8896 260 110 exp 210 ------- 0 260.1 110.1 0 180 11.00 -11.00 -4.00 4.00
- 1.8896 260 110 exp 210 ------- 0 260.1 110.1 0 180 11.00 -11.00 -4.00 4.00
+ 1.8934 157 7 exp 210 ------- 0 157.1 7.1 1 181 0.70 -0.70 -14.30 14.30
r 1.8982 39 189 exp 210 ------- 0 39.0 189.0 0 42 -11.10 11.10 3.90 -3.90
+ 1.9006 289 139 exp 210 ------- 0 289.1 139.1 0 182 13.90 -13.90 -1.10 1.10
- 1.9006 289 139 exp 210 ------- 0 289.1 139.1 0 182 13.90 -13.90 -1.10 1.10
+ 1.9077 167 17 exp 210 ------- 0 167.1 17.1 0 183 1.70 -1.70 -13.30 13.30
- 1.9077 167 17 exp 210 ------- 0 167.1 17.1 0 183 1.70 -1.70 -13.30 13.30
+ 1.9107 224 74 exp 210 ------- 0 224.1 74.1 1 184 7.40 -7.40 -7.60 7.60
+ 1.9108 186 36 exp 210 ------- 0 186.1 36.1 1 185 3.60 -3.60 -11.40 11.40
+ 1.9111 26 176 exp 210 ------- 0 26.0 176.0 0 186 -12.40 12.40 2.60 -2.60
- 1.9111 26 176 exp 210 ------- 0 26.0 176.0 0 186 -12.40 12.40 2.60 -2.60
+ 1.9145 118 268 exp 210 ------- 0 118.0 268.0 0 187 -3.20 3.20 11.80 -11.80
- 1.9145 118 268 exp 210 ------- 0 118.0 268.0 0 187 -3.20 3.20 11.80 -11.80
+ 1.9148 93 243 exp 210 ------- 0 93.0 243.0 0 188 -5.70 5.70 9.30 -9.30
- 1.9148 93 243 exp 210 ------- 0 93.0 243.0 0 188 -5.70 5.70 9.30 -9.30
+ 1.9183 16 166 exp 210 ------- 0 16.0 166.0 1 189 -13.40 13.40 1.60 -1.60
+ 1.9223 247 97 exp 210 ------- 0 247.1 97.1 0 190 9.70 -9.70 -5.30 5.30
- 1.9223 247 97 exp 210 ------- 0 247.1 97.1 0 190 9.70 -9.70 -5.30 5.30
+ 1.9308 162 12 exp 210 ------- 0 162.1 12.1 0 191 1.20 -1.20 -13.80 13.80
- 1.9308 162 12 exp 210 ------- 0 162.1 12.1 0 191 1.20 -1.20 -13.80 13.80
+ 1.9330 185 35 exp 210 ------- 0 185.1 35.1 0 192 3.50 -3.50 -11.50 11.50
- 1.9330 185 35 exp 210 ------- 0 185.1 35.1 0 192 3.50 -3.50 -11.50 11.50
+ 1.9332 162 12 exp 210 ------- 0 162.1 12.1 1 193 1.20 -1.20 -13.80 13.80
+ 1.9369 270 120 exp 210 ------- 0 270.1 120.1 1 194 12.00 -12.00 -3.00 3.00
+ 1.9373 175 25 exp 210 ------- 0 175.1 25.1 1 195 2.50 -2.50 -12.50 12.50
+ 1.9374 76 226 exp 210 ------- 0 76.0 226.0 0 196 -7.40 7.40 7.60 -7.60
- 1.9374 76 226 exp 210 ------- 0 76.0 226.0 0 196 -7.40 7.40 7.60 -7.60
+ 1.9551 187 37 exp 210 ------- 0 187.1 37.1 1 197 3.70 -3.70 -11.30 11.30
+ 1.9663 295 145 exp 210 ------- 0 295.1 145.1 1 198 14.50 -14.50 -0.50 0.50
+ 1.9733 278 128 exp 210 ------- 0 278.1 128.1 0 199 12.80 -12.80 -2.20 2.20
- 1.9733 278 128 exp 210 ------- 0 278.1 128.1 0 199 12.80 -12.80 -2.20 2.20
+ 1.9738 276 126 exp 210 ------- 0 276.1 126.1 0 200 12.60 -12.60 -2.40 2.40
- 1.9738 276 126 exp 210 ------- 0 276.1 126.1 0 200 12.60 -12.60 -2.40 2.40
- 1.9782 96 246 exp 210 ------- 0 96.0 246.0 1 93 -5.40 5.40 9.60 -9.60
+ 1.9795 3 153 exp 210 ------- 0 3.0 153.0 1 201 -14.70 14.70 0.30 -0.30
+ 1.9808 120 270 exp 210 ------- 0 120.0 270.0 0 202 -3.00 3.00 12.00 -12.00
- 1.9808 120 270 exp 210 ------- 0 120.0 270.0 0 202 -3.00 3.00 12.00 -12.00
+ 1.9826 223 73 exp 210 ------- 0 223.1 73.1 0 203 7.30 -7.30 -7.70 7.70
- 1.9826 223 73 exp 210 ------- 0 223.1 73.1 0 203 7.30 -7.30 -7.70 7.70
+ 1.9870 84 234 exp 210 ------- 0 84.0 234.0 1 204 -6.60 6.60 8.40 -8.40
+ 1.9949 155 5 exp 210 ------- 0 155.1 5.1 3 205 0.50 -0.50 -14.50 14.50
+ 1.9991 126 276 exp 210 ------- 0 126.0 276.0 1 206 -2.40 2.40 12.60 -12.60
+ 2.0074 128 278 exp 210 ------- 0 128.0 278.0 0 207 -2.20 2.20 12.80 -12.80
- 2.0074 128 278 exp 210 ------- 0 128.0 278.0 0 207 -2.20 2.20 12.80 -12.80
r 2.0083 96 246 exp 210 ------- 0 96.0 246.0 0 53 -5.40 5.40 9.60 -9.60
+ 2.0083 128 278 exp 210 ------- 0 128.0 278.0 1 208 -2.20 2.20 12.80 -12.80
+ 2.0176 204 54 exp 210 ------- 0 204.1 54.1 0 209 5.40 -5.40 -9.60 9.60
- 2.0176 204 54 exp 210 ------- 0 204.1 54.1 0 209 5.40 -5.40 -9.60 9.60
r 2.0221 225 75 exp 210 ------- 0 225.1 75.1 0 152 7.50 -7.50 -7.50 7.50
+ 2.0246 108 258 exp 210 ------- 0 108.0 258.0 0 210 -4.20 4.20 10.80 -10.80
- 2.0246 108 258 exp 210 ------- 0 108.0 258.0 0 210 -4.20 4.20 10.80 -10.80
+ 2.0303 161 11 exp 210 ------- 0 161.1 11.1 0 211 1.10 -1.10 -13.90 13.90
- 2.0303 161 11 exp 210 ------- 0 161.1 11.1 0 211 1.10 -1.10 -13.90 13.90
+ 2.0310 125 275 exp 210 ------- 0 125.0 275.0 0 212 -2.50 2.50 12.50 -12.50
- 2.0310 125 275 exp 210 ------- 0 125.0 275.0 0 212 -2.50 2.50 12.50 -12.50
+ 2.0318 172 22 exp 210 ------- 0 172.1 22.1 1 213 2.20 -2.20 -12.80 12.80
- 2.0318 172 22 exp 210 ------- 0 172.1 22.1 1 213 2.20 -2.20 -12.80 12.80
+ 2.0446 153 3 exp 210 ------- 0 153.1 3.1 0 214 0.30 -0.30 -14.70 14.70
- 2.0446 153 3 exp 210 ------- 0 153.1 3.1 0 214 0.30 -0.30 -14.70 14.70
+ 2.0447 120 270 exp 210 ------- 0 120.0 270.0 1 215 -3.00 3.00 12.00 -12.00
+ 2.0625 135 285 exp 210 ------- 0 135.0 285.0 0 216 -1.50 1.50 13.50 -13.50
- 2.0625 135 285 exp 210 ------- 0 135.0 285.0 0 216 -1.50 1.50 13.50 -13.50
+ 2.0649 34 184 exp 210 ------- 0 34.0 184.0 0 217 -11.60 11.60 3.40 -3.40
- 2.0649 34 184 exp 210 ------- 0 34.0 184.0 0 217 -11.60 11.60 3.40 -3.40
+ 2.0780 102 252 exp 210 ------- 0 102.0 252.0 0 218 -4.80 4.80 10.20 -10.20
- 2.0780 102 252 exp 210 ------- 0 102.0 252.0 0 218 -4.80 4.80 10.20 -10.20
+ 2.0818 34 184 exp 210 ------- 0 34.0 184.0 1 219 -11.60 11.60 3.40 -3.40
+ 2.0834 254 104 exp 210 ------- 0 254.1 104.1 0 220 10.40 -10.40 -4.60 4.60