+ 1.0609 33 8 exp 210 ------- 0 33.1 8.1 0 0 -11.70 11.70 -14.20 14.20
- 1.0609 33 8 exp 210 ------- 0 33.1 8.1 0 0 -11.70 11.70 -14.20 14.20
+ 1.2557 38 13 exp 210 ------- 0 38.1 13.1 0 1 -11.20 11.20 -13.70 13.70
- 1.2557 38 13 exp 210 ------- 0 38.1 13.1 0 1 -11.20 11.20 -13.70 13.70
+ 1.2877 21 46 exp 210 ------- 0 21.0 46.0 0 2 -12.90 12.90 -10.40 10.40
- 1.2877 21 46 exp 210 ------- 0 21.0 46.0 0 2 -12.90 12.90 -10.40 10.40
+ 1.2987 20 45 exp 210 ------- 0 20.0 45.0 0 3 -13.00 13.00 -10.50 10.50
- 1.2987 20 45 exp 210 ------- 0 20.0 45.0 0 3 -13.00 13.00 -10.50 10.50
r 1.3189 33 8 exp 210 ------- 0 33.1 8.1 0 0 -11.70 11.70 -14.20 14.20
+ 1.3350 39 14 exp 210 ------- 0 39.1 14.1 0 4 -11.10 11.10 -13.60 13.60
- 1.3350 39 14 exp 210 ------- 0 39.1 14.1 0 4 -11.10 11.10 -13.60 13.60
+ 1.3624 35 10 exp 210 ------- 0 35.1 10.1 0 5 -11.50 11.50 -14.00 14.00
- 1.3624 35 10 exp 210 ------- 0 35.1 10.1 0 5 -11.50 11.50 -14.00 14.00
+ 1.3712 14 39 exp 210 ------- 0 14.0 39.0 0 6 -13.60 13.60 -11.10 11.10
- 1.3712 14 39 exp 210 ------- 0 14.0 39.0 0 6 -13.60 13.60 -11.10 11.10
+ 1.3806 33 8 exp 210 ------- 0 33.1 8.1 1 7 -11.70 11.70 -14.20 14.20
- 1.3806 33 8 exp 210 ------- 0 33.1 8.1 1 7 -11.70 11.70 -14.20 14.20
+ 1.4032 16 41 exp 210 ------- 0 16.0 41.0 0 8 -13.40 13.40 -10.90 10.90
- 1.4032 16 41 exp 210 ------- 0 16.0 41.0 0 8 -13.40 13.40 -10.90 10.90
+ 1.4470 6 31 exp 210 ------- 0 6.0 31.0 0 9 -14.40 14.40 -11.90 11.90
- 1.4470 6 31 exp 210 ------- 0 6.0 31.0 0 9 -14.40 14.40 -11.90 11.90
+ 1.5071 4 29 exp 210 ------- 0 4.0 29.0 0 10 -14.60 14.60 -12.10 12.10
- 1.5071 4 29 exp 210 ------- 0 4.0 29.0 0 10 -14.60 14.60 -12.10 12.10
+ 1.5098 42 17 exp 210 ------- 0 42.1 17.1 0 11 -10.80 10.80 -13.30 13.30
- 1.5098 42 17 exp 210 ------- 0 42.1 17.1 0 11 -10.80 10.80 -13.30 13.30
r 1.5135 38 13 exp 210 ------- 0 38.1 13.1 0 1 -11.20 11.20 -13.70 13.70
r 1.5563 21 46 exp 210 ------- 0 21.0 46.0 0 2 -12.90 12.90 -10.40 10.40
+ 1.5607 3 28 exp 210 ------- 0 3.0 28.0 0 12 -14.70 14.70 -12.20 12.20
- 1.5607 3 28 exp 210 ------- 0 3.0 28.0 0 12 -14.70 14.70 -12.20 12.20
r 1.5928 39 14 exp 210 ------- 0 39.1 14.1 0 4 -11.10 11.10 -13.60 13.60
+ 1.6054 30 5 exp 210 ------- 0 30.1 5.1 0 13 -12.00 12.00 -14.50 14.50
- 1.6054 30 5 exp 210 ------- 0 30.1 5.1 0 13 -12.00 12.00 -14.50 14.50
r 1.6387 35 10 exp 210 ------- 0 35.1 10.1 0 5 -11.50 11.50 -14.00 14.00
+ 1.6448 31 6 exp 210 ------- 0 31.1 6.1 0 14 -11.90 11.90 -14.40 14.40
- 1.6448 31 6 exp 210 ------- 0 31.1 6.1 0 14 -11.90 11.90 -14.40 14.40
r 1.6610 16 41 exp 210 ------- 0 16.0 41.0 0 8 -13.40 13.40 -10.90 10.90
+ 1.6789 17 42 exp 210 ------- 0 17.0 42.0 0 15 -13.30 13.30 -10.80 10.80
- 1.6789 17 42 exp 210 ------- 0 17.0 42.0 0 15 -13.30 13.30 -10.80 10.80
r 1.7052 6 31 exp 210 ------- 0 6.0 31.0 0 9 -14.40 14.40 -11.90 11.90
+ 1.7670 40 15 exp 210 ------- 0 40.1 15.1 0 16 -11.00 11.00 -13.50 13.50
- 1.7670 40 15 exp 210 ------- 0 40.1 15.1 0 16 -11.00 11.00 -13.50 13.50
r 1.7673 4 29 exp 210 ------- 0 4.0 29.0 0 10 -14.60 14.60 -12.10 12.10
+ 1.7696 36 11 exp 210 ------- 0 36.1 11.1 0 17 -11.40 11.40 -13.90 13.90
- 1.7696 36 11 exp 210 ------- 0 36.1 11.1 0 17 -11.40 11.40 -13.90 13.90
+ 1.7823 42 17 exp 210 ------- 0 42.1 17.1 1 18 -10.80 10.80 -13.30 13.30
r 1.8189 3 28 exp 210 ------- 0 3.0 28.0 0 12 -14.70 14.70 -12.20 12.20
r 1.8636 30 5 exp 210 ------- 0 30.1 5.1 0 13 -12.00 12.00 -14.50 14.50
+ 1.8893 20 45 exp 210 ------- 0 20.0 45.0 1 19 -13.00 13.00 -10.50 10.50
r 1.9030 31 6 exp 210 ------- 0 31.1 6.1 0 14 -11.90 11.90 -14.40 14.40
+ 1.9073 47 22 exp 210 ------- 0 47.1 22.1 0 20 -10.30 10.30 -12.80 12.80
- 1.9073 47 22 exp 210 ------- 0 47.1 22.1 0 20 -10.30 10.30 -12.80 12.80
+ 1.9100 32 7 exp 210 ------- 0 32.1 7.1 0 21 -11.80 11.80 -14.30 14.30
- 1.9100 32 7 exp 210 ------- 0 32.1 7.1 0 21 -11.80 11.80 -14.30 14.30
r 1.9367 17 42 exp 210 ------- 0 17.0 42.0 0 15 -13.30 13.30 -10.80 10.80
+ 1.9648 3 28 exp 210 ------- 0 3.0 28.0 1 22 -14.70 14.70 -12.20 12.20
- 1.9648 3 28 exp 210 ------- 0 3.0 28.0 1 22 -14.70 14.70 -12.20 12.20
+ 1.9897 21 46 exp 210 ----